<?xml version="1.0"?>
<VTKFile type="PolyData" version="0.1" byte_order="LittleEndian" compressor="vtkZLibDataCompressor">
  <PolyData>
    <Piece NumberOfPoints="25" NumberOfVerts="0" NumberOfLines="0" NumberOfStrips="0" NumberOfPolys="16">
      <PointData Scalars="spokeLength" Vectors="spokeDirection">
        <DataArray type="Float64" Name="spokeDirection" NumberOfComponents="3" format="ascii" RangeMin="1" RangeMax="1">
          0.80593369079 -0.59064058572 0.040181893268 0.87415311369 -0.48341569015 -0.046536054231
          0.89161713196 -0.39662192732 -0.21842604416 0.77990160699 -0.32560985577 -0.53453877806
          0.51870532372 -0.32038122291 -0.79265418636 0.71289762564 -0.69828226467 -0.064644057771
          0.58259549078 -0.70868451267 -0.39793059146 0.49467878722 -0.63874042498 -0.58932467026
          0.30438635258 -0.57573718658 -0.75886470491 0.17739553815 -0.37681506943 -0.90914312762
          0.16368490252 -0.9288256415 -0.33240063235 0.096740092234 -0.74982652044 -0.65452390621
          0.14416531513 -0.68857152939 -0.71069375319 0.010441034846 -0.63344325238 -0.77371870263
          -0.075778795387 -0.3553823405 -0.93164422728 -0.5598135705 -0.7574494358 -0.33597487777
          -0.36855504632 -0.70549016556 -0.60535180196 -0.23894381157 -0.67889057894 -0.69427187524
          -0.22442847949 -0.61588104987 -0.75519692134 -0.26497331048 -0.36470818777 -0.89262370712
          -0.82323230467 -0.51220239931 -0.24482090329 -0.88501857846 -0.40715257294 -0.22576292462
          -0.82809169013 -0.43648758764 -0.3517708609 -0.68664443601 -0.43383337324 -0.58335925702
          -0.4869823392 -0.4028725571 -0.77494638785
        </DataArray>
        <DataArray type="Float64" Name="spokeLength" format="ascii" RangeMin="1.6067592026" RangeMax="4.5284443257">
          3.3982586771 3.3305016095 3.453789383 3.5877128021 3.4256661017 2.5150682907
          2.1814356743 2.9973386078 3.9118645277 3.3893601712 1.6067592026 2.1615607284
          3.3316129449 4.5284443257 3.7059396446 1.9737220445 2.3923304757 3.1191371661
          4.0841878953 3.5445188091 2.6852049929 3.1367885295 2.8909046215 2.8453536125
          3.1093547191
        </DataArray>
      </PointData>
      <CellData>
      </CellData>
      <Points>
        <DataArray type="Float32" Name="Points" NumberOfComponents="3" format="ascii" RangeMin="165.20309531" RangeMax="185.22540344">
          -114.88210297 -123.15722656 67.243377686 -115.54816437 -119.8707428 64.214393616
          -115.91892242 -115.93523407 60.50725174 -115.45638275 -111.85824585 57.448635101
          -114.73459625 -108.3637085 55.05412674 -114.88970184 -125.14660645 69.12436676
          -116.70721436 -120.6243515 64.568023682 -117.11237335 -115.87500763 60.589427948
          -116.38562012 -111.01940918 57.056434631 -115.04545593 -105.98088074 53.147518158
          -116.36055756 -125.69023895 69.429695129 -117.94813538 -121.04308319 64.541168213
          -118.25093842 -115.84712219 60.757644653 -117.44044495 -110.65077972 56.940093994
          -116.34442902 -105.14790344 52.388576508 -118.44947052 -125.03134918 68.156692505
          -119.39613342 -120.73009491 64.126586914 -119.46730042 -115.85679626 61.003051758
          -118.67066956 -111.10189056 57.40328598 -117.75391388 -106.09700012 53.255081177
          -120.14942932 -123.09339142 65.987861633 -121.03738403 -119.95605469 63.718780518
          -120.89658356 -115.92290497 61.286785126 -119.99280548 -112.00469971 58.224761963
          -118.88867188 -108.57429504 55.331523895
        </DataArray>
      </Points>
      <Verts>
        <DataArray type="Int64" Name="connectivity" format="ascii" RangeMin="1e+299" RangeMax="-1e+299">
        </DataArray>
        <DataArray type="Int64" Name="offsets" format="ascii" RangeMin="1e+299" RangeMax="-1e+299">
        </DataArray>
      </Verts>
      <Lines>
        <DataArray type="Int64" Name="connectivity" format="ascii" RangeMin="1e+299" RangeMax="-1e+299">
        </DataArray>
        <DataArray type="Int64" Name="offsets" format="ascii" RangeMin="1e+299" RangeMax="-1e+299">
        </DataArray>
      </Lines>
      <Strips>
        <DataArray type="Int64" Name="connectivity" format="ascii" RangeMin="1e+299" RangeMax="-1e+299">
        </DataArray>
        <DataArray type="Int64" Name="offsets" format="ascii" RangeMin="1e+299" RangeMax="-1e+299">
        </DataArray>
      </Strips>
      <Polys>
        <DataArray type="Int64" Name="connectivity" format="ascii" RangeMin="0" RangeMax="24">
          0 5 6 1 1 6
          7 2 2 7 8 3
          3 8 9 4 5 10
          11 6 6 11 12 7
          7 12 13 8 8 13
          14 9 10 15 16 11
          11 16 17 12 12 17
          18 13 13 18 19 14
          15 20 21 16 16 21
          22 17 17 22 23 18
          18 23 24 19
        </DataArray>
        <DataArray type="Int64" Name="offsets" format="ascii" RangeMin="4" RangeMax="64">
          4 8 12 16 20 24
          28 32 36 40 44 48
          52 56 60 64
        </DataArray>
      </Polys>
    </Piece>
  </PolyData>
</VTKFile>
