<?xml version="1.0"?>
<VTKFile type="PolyData" version="0.1" byte_order="LittleEndian" compressor="vtkZLibDataCompressor">
  <PolyData>
    <Piece NumberOfPoints="25" NumberOfVerts="0" NumberOfLines="0" NumberOfStrips="0" NumberOfPolys="16">
      <PointData Scalars="spokeLength" Vectors="spokeDirection">
        <DataArray type="Float64" Name="spokeDirection" NumberOfComponents="3" format="ascii" RangeMin="1" RangeMax="1">
          0.65987570685 0.085072392143 0.7465431934 0.79242173329 0.13390805634 0.59509363049
          0.79566376117 0.43855368263 0.41783949863 0.68239343665 0.57205389756 0.45507530794
          0.63750081037 0.53112419939 0.55812167276 0.47993183715 0.13331862629 0.86711681772
          0.41504665283 0.3476311153 0.84076684262 0.26508578503 0.68458026057 0.67902827144
          0.37964607097 0.63461961875 0.67314693811 0.5161089741 0.59795384461 0.61325584104
          0.11068036113 0.18880981683 0.97575648126 0.056672669851 0.38949343601 0.91928399953
          0.021205231151 0.68901447999 0.7244372882 0.10834175541 0.70588790828 0.69998880347
          0.1724933828 0.70804921822 0.68477174115 -0.43722066857 0.22817019519 0.86992899078
          -0.42002670089 0.39932376947 0.81493441312 -0.25487520507 0.64447730261 0.72089363727
          -0.20795108865 0.70327882242 0.67982000755 -0.28381744198 0.74099366603 0.60858528288
          -0.74001202321 0.19233877355 0.6445060137 -0.84913863801 0.19681293286 0.49013084263
          -0.79306118147 0.3292538534 0.51248986573 -0.62814061319 0.54635797835 0.55401473767
          -0.50118306564 0.69558154697 0.51476387425
        </DataArray>
        <DataArray type="Float64" Name="spokeLength" format="ascii" RangeMin="2.0248235541" RangeMax="5.2675007619">
          3.9723107377 2.9908123759 2.0248235541 2.715704007 4.0487775625 3.8400620367
          2.6636429905 2.8707933249 4.8029504693 4.2462369078 3.0008578294 2.2561970233
          3.5691959795 5.2675007619 3.3887659152 2.8450683938 2.5259032898 3.6712244093
          4.6859205371 3.1946669206 3.3710105921 3.7238503187 3.3136255549 2.8967410851
          3.089954551
        </DataArray>
      </PointData>
      <CellData>
      </CellData>
      <Points>
        <DataArray type="Float32" Name="Points" NumberOfComponents="3" format="ascii" RangeMin="165.20309531" RangeMax="185.22540344">
          -114.88210297 -123.15722656 67.243377686 -115.54816437 -119.8707428 64.214393616
          -115.91892242 -115.93523407 60.50725174 -115.45638275 -111.85824585 57.448635101
          -114.73459625 -108.3637085 55.05412674 -114.88970184 -125.14660645 69.12436676
          -116.70721436 -120.6243515 64.568023682 -117.11237335 -115.87500763 60.589427948
          -116.38562012 -111.01940918 57.056434631 -115.04545593 -105.98088074 53.147518158
          -116.36055756 -125.69023895 69.429695129 -117.94813538 -121.04308319 64.541168213
          -118.25093842 -115.84712219 60.757644653 -117.44044495 -110.65077972 56.940093994
          -116.34442902 -105.14790344 52.388576508 -118.44947052 -125.03134918 68.156692505
          -119.39613342 -120.73009491 64.126586914 -119.46730042 -115.85679626 61.003051758
          -118.67066956 -111.10189056 57.40328598 -117.75391388 -106.09700012 53.255081177
          -120.14942932 -123.09339142 65.987861633 -121.03738403 -119.95605469 63.718780518
          -120.89658356 -115.92290497 61.286785126 -119.99280548 -112.00469971 58.224761963
          -118.88867188 -108.57429504 55.331523895
        </DataArray>
      </Points>
      <Verts>
        <DataArray type="Int64" Name="connectivity" format="ascii" RangeMin="1e+299" RangeMax="-1e+299">
        </DataArray>
        <DataArray type="Int64" Name="offsets" format="ascii" RangeMin="1e+299" RangeMax="-1e+299">
        </DataArray>
      </Verts>
      <Lines>
        <DataArray type="Int64" Name="connectivity" format="ascii" RangeMin="1e+299" RangeMax="-1e+299">
        </DataArray>
        <DataArray type="Int64" Name="offsets" format="ascii" RangeMin="1e+299" RangeMax="-1e+299">
        </DataArray>
      </Lines>
      <Strips>
        <DataArray type="Int64" Name="connectivity" format="ascii" RangeMin="1e+299" RangeMax="-1e+299">
        </DataArray>
        <DataArray type="Int64" Name="offsets" format="ascii" RangeMin="1e+299" RangeMax="-1e+299">
        </DataArray>
      </Strips>
      <Polys>
        <DataArray type="Int64" Name="connectivity" format="ascii" RangeMin="0" RangeMax="24">
          0 5 6 1 1 6
          7 2 2 7 8 3
          3 8 9 4 5 10
          11 6 6 11 12 7
          7 12 13 8 8 13
          14 9 10 15 16 11
          11 16 17 12 12 17
          18 13 13 18 19 14
          15 20 21 16 16 21
          22 17 17 22 23 18
          18 23 24 19
        </DataArray>
        <DataArray type="Int64" Name="offsets" format="ascii" RangeMin="4" RangeMax="64">
          4 8 12 16 20 24
          28 32 36 40 44 48
          52 56 60 64
        </DataArray>
      </Polys>
    </Piece>
  </PolyData>
</VTKFile>
